<?xml version="1.0"?>
<VTKFile type="UnstructuredGrid" version="0.1" byte_order="LittleEndian">
  <UnstructuredGrid>
    <Piece NumberOfPoints="25" NumberOfCells="16">
      <Points>
        <DataArray type="Float64" NumberOfComponents="3" format="ascii">
          -4.50000000e+01 4.50000000e+01 0.00000000e+00 
-4.50000000e+01 4.39146271e+01 0.00000000e+00 
-4.50000000e+01 4.18571434e+01 0.00000000e+00 
-4.50000000e+01 3.97996597e+01 0.00000000e+00 
-4.50000000e+01 3.87142868e+01 0.00000000e+00 
-4.37337303e+01 4.50000000e+01 0.00000000e+00 
-4.37337303e+01 4.39146271e+01 0.00000000e+00 
-4.37337303e+01 4.18571434e+01 0.00000000e+00 
-4.37337303e+01 3.97996597e+01 0.00000000e+00 
-4.37337303e+01 3.87142868e+01 0.00000000e+00 
-4.13333321e+01 4.50000000e+01 0.00000000e+00 
-4.13333321e+01 4.39146271e+01 0.00000000e+00 
-4.13333321e+01 4.18571434e+01 0.00000000e+00 
-4.13333321e+01 3.97996597e+01 0.00000000e+00 
-4.13333321e+01 3.87142868e+01 0.00000000e+00 
-3.89329376e+01 4.50000000e+01 0.00000000e+00 
-3.89329376e+01 4.39146271e+01 0.00000000e+00 
-3.89329376e+01 4.18571434e+01 0.00000000e+00 
-3.89329376e+01 3.97996597e+01 0.00000000e+00 
-3.89329376e+01 3.87142868e+01 0.00000000e+00 
-3.76666679e+01 4.50000000e+01 0.00000000e+00 
-3.76666679e+01 4.39146271e+01 0.00000000e+00 
-3.76666679e+01 4.18571434e+01 0.00000000e+00 
-3.76666679e+01 3.97996597e+01 0.00000000e+00 
-3.76666679e+01 3.87142868e+01 0.00000000e+00 

        </DataArray>
      </Points>
      <Cells>
        <DataArray type="Int32" Name="connectivity" format="ascii">
0 1 6 5
5 6 11 10
10 11 16 15
15 16 21 20
1 2 7 6
6 7 12 11
11 12 17 16
16 17 22 21
2 3 8 7
7 8 13 12
12 13 18 17
17 18 23 22
3 4 9 8
8 9 14 13
13 14 19 18
18 19 24 23

        </DataArray>
        <DataArray type="Int32" Name="offsets" format="ascii">
4 8 12 16 20 24 28 32 36 40 44 48 52 56 60 64 
        </DataArray>
        <DataArray type="UInt8" Name="types" format="ascii">
9 9 9 9 9 9 9 9 9 9 9 9 9 9 9 9 
        </DataArray>
      </Cells>
      <PointData>
        <DataArray type="Float64" Name="u">
          1.00000000e+00 1.00000000e+00 1.00000000e+00 1.00000000e+00 1.00000000e+00 1.00000300e+00 1.00000443e+00 1.00000408e+00 1.00000366e+00 1.00000498e+00 1.00002285e+00 1.00002724e+00 1.00002601e+00 1.00002448e+00 1.00002846e+00 1.00005157e+00 1.00005693e+00 1.00005520e+00 1.00005291e+00 1.00005754e+00 1.00006637e+00 1.00007054e+00 1.00006897e+00 1.00006672e+00 1.00006999e+00 
        </DataArray>
        <DataArray type="Float64" Name="v">
          0.00000000e+00 0.00000000e+00 0.00000000e+00 0.00000000e+00 0.00000000e+00 0.00000000e+00 6.32276228e-06 1.90718858e-05 3.09761161e-05 3.61723539e-05 0.00000000e+00 1.24456372e-05 3.62905818e-05 5.94945083e-05 7.10854548e-05 0.00000000e+00 1.32353128e-05 3.78857016e-05 6.24131823e-05 7.54846175e-05 0.00000000e+00 1.24471427e-05 3.61261527e-05 5.92563407e-05 7.09717206e-05 
        </DataArray>
        <DataArray type="Float64" Name="p">
          6.79350980e-03 6.63575574e-03 6.68393733e-03 6.74463501e-03 6.60356908e-03 6.70563748e-03 6.65146978e-03 6.67796183e-03 6.71834142e-03 6.68269045e-03 6.71197571e-03 6.62191633e-03 6.65618336e-03 6.70430714e-03 6.63272341e-03 6.71020062e-03 6.57182995e-03 6.61677291e-03 6.67554742e-03 6.55561883e-03 6.61151053e-03 6.56016676e-03 6.58728809e-03 6.62961993e-03 6.59855682e-03 
        </DataArray>
      </PointData>
    </Piece>
    <Piece NumberOfPoints="25" NumberOfCells="16">
      <Points>
        <DataArray type="Float64" NumberOfComponents="3" format="ascii">
          -3.76666679e+01 4.50000000e+01 0.00000000e+00 
-3.76666679e+01 4.39146271e+01 0.00000000e+00 
-3.76666679e+01 4.18571434e+01 0.00000000e+00 
-3.76666679e+01 3.97996597e+01 0.00000000e+00 
-3.76666679e+01 3.87142868e+01 0.00000000e+00 
-3.64003983e+01 4.50000000e+01 0.00000000e+00 
-3.64003983e+01 4.39146271e+01 0.00000000e+00 
-3.64003983e+01 4.18571434e+01 0.00000000e+00 
-3.64003983e+01 3.97996597e+01 0.00000000e+00 
-3.64003983e+01 3.87142868e+01 0.00000000e+00 
-3.40000000e+01 4.50000000e+01 0.00000000e+00 
-3.40000000e+01 4.39146271e+01 0.00000000e+00 
-3.40000000e+01 4.18571434e+01 0.00000000e+00 
-3.40000000e+01 3.97996597e+01 0.00000000e+00 
-3.40000000e+01 3.87142868e+01 0.00000000e+00 
-3.15996037e+01 4.50000000e+01 0.00000000e+00 
-3.15996037e+01 4.39146271e+01 0.00000000e+00 
-3.15996037e+01 4.18571434e+01 0.00000000e+00 
-3.15996037e+01 3.97996597e+01 0.00000000e+00 
-3.15996037e+01 3.87142868e+01 0.00000000e+00 
-3.03333340e+01 4.50000000e+01 0.00000000e+00 
-3.03333340e+01 4.39146271e+01 0.00000000e+00 
-3.03333340e+01 4.18571434e+01 0.00000000e+00 
-3.03333340e+01 3.97996597e+01 0.00000000e+00 
-3.03333340e+01 3.87142868e+01 0.00000000e+00 

        </DataArray>
      </Points>
      <Cells>
        <DataArray type="Int32" Name="connectivity" format="ascii">
0 1 6 5
5 6 11 10
10 11 16 15
15 16 21 20
1 2 7 6
6 7 12 11
11 12 17 16
16 17 22 21
2 3 8 7
7 8 13 12
12 13 18 17
17 18 23 22
3 4 9 8
8 9 14 13
13 14 19 18
18 19 24 23

        </DataArray>
        <DataArray type="Int32" Name="offsets" format="ascii">
4 8 12 16 20 24 28 32 36 40 44 48 52 56 60 64 
        </DataArray>
        <DataArray type="UInt8" Name="types" format="ascii">
9 9 9 9 9 9 9 9 9 9 9 9 9 9 9 9 
        </DataArray>
      </Cells>
      <PointData>
        <DataArray type="Float64" Name="u">
          1.00006637e+00 1.00007054e+00 1.00006897e+00 1.00006672e+00 1.00006999e+00 1.00008035e+00 1.00008707e+00 1.00008479e+00 1.00008161e+00 1.00008714e+00 1.00010688e+00 1.00011753e+00 1.00011418e+00 1.00010982e+00 1.00011914e+00 1.00013423e+00 1.00014951e+00 1.00014503e+00 1.00013934e+00 1.00015300e+00 1.00014932e+00 1.00016808e+00 1.00016281e+00 1.00015596e+00 1.00017263e+00 
        </DataArray>
        <DataArray type="Float64" Name="v">
          0.00000000e+00 1.24471427e-05 3.61261527e-05 5.92563407e-05 7.09717206e-05 0.00000000e+00 1.29211139e-05 3.80573186e-05 6.23351367e-05 7.41117351e-05 0.00000000e+00 1.36825458e-05 4.02621459e-05 6.60274536e-05 7.86242761e-05 0.00000000e+00 1.40996582e-05 4.18281885e-05 6.85527546e-05 8.13137937e-05 0.00000000e+00 1.41145369e-05 4.29076415e-05 7.00755293e-05 8.20231103e-05 
        </DataArray>
        <DataArray type="Float64" Name="p">
          6.61151053e-03 6.56016676e-03 6.58728809e-03 6.62961993e-03 6.59855682e-03 6.67965229e-03 6.49904758e-03 6.55368484e-03 6.62278849e-03 6.46147230e-03 6.62645924e-03 6.41199038e-03 6.47483683e-03 6.55296753e-03 6.35887767e-03 6.57026167e-03 6.29921431e-03 6.37529881e-03 6.46762488e-03 6.21823294e-03 6.63439741e-03 6.20380331e-03 6.31410888e-03 6.44009786e-03 6.03041496e-03 
        </DataArray>
      </PointData>
    </Piece>
    <Piece NumberOfPoints="25" NumberOfCells="16">
      <Points>
        <DataArray type="Float64" NumberOfComponents="3" format="ascii">
          -3.03333340e+01 4.50000000e+01 0.00000000e+00 
-3.03333340e+01 4.39146271e+01 0.00000000e+00 
-3.03333340e+01 4.18571434e+01 0.00000000e+00 
-3.03333340e+01 3.97996597e+01 0.00000000e+00 
-3.03333340e+01 3.87142868e+01 0.00000000e+00 
-2.90670643e+01 4.50000000e+01 0.00000000e+00 
-2.90670643e+01 4.39146271e+01 0.00000000e+00 
-2.90670643e+01 4.18571434e+01 0.00000000e+00 
-2.90670643e+01 3.97996597e+01 0.00000000e+00 
-2.90670643e+01 3.87142868e+01 0.00000000e+00 
-2.66666660e+01 4.50000000e+01 0.00000000e+00 
-2.66666660e+01 4.39146271e+01 0.00000000e+00 
-2.66666660e+01 4.18571434e+01 0.00000000e+00 
-2.66666660e+01 3.97996597e+01 0.00000000e+00 
-2.66666660e+01 3.87142868e+01 0.00000000e+00 
-2.42662697e+01 4.50000000e+01 0.00000000e+00 
-2.42662697e+01 4.39146271e+01 0.00000000e+00 
-2.42662697e+01 4.18571434e+01 0.00000000e+00 
-2.42662697e+01 3.97996597e+01 0.00000000e+00 
-2.42662697e+01 3.87142868e+01 0.00000000e+00 
-2.30000000e+01 4.50000000e+01 0.00000000e+00 
-2.30000000e+01 4.39146271e+01 0.00000000e+00 
-2.30000000e+01 4.18571434e+01 0.00000000e+00 
-2.30000000e+01 3.97996597e+01 0.00000000e+00 
-2.30000000e+01 3.87142868e+01 0.00000000e+00 

        </DataArray>
      </Points>
      <Cells>
        <DataArray type="Int32" Name="connectivity" format="ascii">
0 1 6 5
5 6 11 10
10 11 16 15
15 16 21 20
1 2 7 6
6 7 12 11
11 12 17 16
16 17 22 21
2 3 8 7
7 8 13 12
12 13 18 17
17 18 23 22
3 4 9 8
8 9 14 13
13 14 19 18
18 19 24 23

        </DataArray>
        <DataArray type="Int32" Name="offsets" format="ascii">
4 8 12 16 20 24 28 32 36 40 44 48 52 56 60 64 
        </DataArray>
        <DataArray type="UInt8" Name="types" format="ascii">
9 9 9 9 9 9 9 9 9 9 9 9 9 9 9 9 
        </DataArray>
      </Cells>
      <PointData>
        <DataArray type="Float64" Name="u">
          1.00014932e+00 1.00016808e+00 1.00016281e+00 1.00015596e+00 1.00017263e+00 1.00016127e+00 1.00018575e+00 1.00017915e+00 1.00017152e+00 1.00019462e+00 1.00018820e+00 1.00022213e+00 1.00021361e+00 1.00020374e+00 1.00023587e+00 1.00021258e+00 1.00026085e+00 1.00024935e+00 1.00023679e+00 1.00028366e+00 1.00022111e+00 1.00028164e+00 1.00026740e+00 1.00025345e+00 1.00031437e+00 
        </DataArray>
        <DataArray type="Float64" Name="v">
          0.00000000e+00 1.41145369e-05 4.29076415e-05 7.00755293e-05 8.20231103e-05 0.00000000e+00 1.47538477e-05 4.43105367e-05 7.25874872e-05 8.56350169e-05 0.00000000e+00 1.52217077e-05 4.63090480e-05 7.57836211e-05 8.88549726e-05 0.00000000e+00 1.54750694e-05 4.82178084e-05 7.87045237e-05 9.11715616e-05 0.00000000e+00 1.58283827e-05 4.95010358e-05 8.08495064e-05 9.35789792e-05 
        </DataArray>
        <DataArray type="Float64" Name="p">
          6.63439741e-03 6.20380331e-03 6.31410888e-03 6.44009786e-03 6.03041496e-03 6.52759059e-03 6.14767603e-03 6.24825893e-03 6.36578305e-03 6.00845679e-03 6.50795005e-03 5.96894876e-03 6.10465471e-03 6.25774681e-03 5.74192704e-03 6.48819901e-03 5.76240745e-03 5.93910866e-03 6.13340826e-03 5.43108124e-03 6.38124485e-03 5.66919480e-03 5.84400292e-03 6.03735705e-03 5.35003499e-03 
        </DataArray>
      </PointData>
    </Piece>
    <Piece NumberOfPoints="25" NumberOfCells="16">
      <Points>
        <DataArray type="Float64" NumberOfComponents="3" format="ascii">
          -2.30000000e+01 4.50000000e+01 0.00000000e+00 
-2.30000000e+01 4.39146271e+01 0.00000000e+00 
-2.30000000e+01 4.18571434e+01 0.00000000e+00 
-2.30000000e+01 3.97996597e+01 0.00000000e+00 
-2.30000000e+01 3.87142868e+01 0.00000000e+00 
-2.17337303e+01 4.50000000e+01 0.00000000e+00 
-2.17337303e+01 4.39146271e+01 0.00000000e+00 
-2.17337303e+01 4.18571434e+01 0.00000000e+00 
-2.17337303e+01 3.97996597e+01 0.00000000e+00 
-2.17337303e+01 3.87142868e+01 0.00000000e+00 
-1.93333340e+01 4.50000000e+01 0.00000000e+00 
-1.93333340e+01 4.39146271e+01 0.00000000e+00 
-1.93333340e+01 4.18571434e+01 0.00000000e+00 
-1.93333340e+01 3.97996597e+01 0.00000000e+00 
-1.93333340e+01 3.87142868e+01 0.00000000e+00 
-1.69329357e+01 4.50000000e+01 0.00000000e+00 
-1.69329357e+01 4.39146271e+01 0.00000000e+00 
-1.69329357e+01 4.18571434e+01 0.00000000e+00 
-1.69329357e+01 3.97996597e+01 0.00000000e+00 
-1.69329357e+01 3.87142868e+01 0.00000000e+00 
-1.56666670e+01 4.50000000e+01 0.00000000e+00 
-1.56666670e+01 4.39146271e+01 0.00000000e+00 
-1.56666670e+01 4.18571434e+01 0.00000000e+00 
-1.56666670e+01 3.97996597e+01 0.00000000e+00 
-1.56666670e+01 3.87142868e+01 0.00000000e+00 

        </DataArray>
      </Points>
      <Cells>
        <DataArray type="Int32" Name="connectivity" format="ascii">
0 1 6 5
5 6 11 10
10 11 16 15
15 16 21 20
1 2 7 6
6 7 12 11
11 12 17 16
16 17 22 21
2 3 8 7
7 8 13 12
12 13 18 17
17 18 23 22
3 4 9 8
8 9 14 13
13 14 19 18
18 19 24 23

        </DataArray>
        <DataArray type="Int32" Name="offsets" format="ascii">
4 8 12 16 20 24 28 32 36 40 44 48 52 56 60 64 
        </DataArray>
        <DataArray type="UInt8" Name="types" format="ascii">
9 9 9 9 9 9 9 9 9 9 9 9 9 9 9 9 
        </DataArray>
      </Cells>
      <PointData>
        <DataArray type="Float64" Name="u">
          1.00022111e+00 1.00028164e+00 1.00026740e+00 1.00025345e+00 1.00031437e+00 1.00023677e+00 1.00030338e+00 1.00028844e+00 1.00027218e+00 1.00033702e+00 1.00025413e+00 1.00034565e+00 1.00032554e+00 1.00030556e+00 1.00039726e+00 1.00026752e+00 1.00038878e+00 1.00036293e+00 1.00033782e+00 1.00046008e+00 1.00027790e+00 1.00041165e+00 1.00038436e+00 1.00035508e+00 1.00048618e+00 
        </DataArray>
        <DataArray type="Float64" Name="v">
          0.00000000e+00 1.58283827e-05 4.95010358e-05 8.08495064e-05 9.35789792e-05 0.00000000e+00 1.59040311e-05 4.95780896e-05 8.10283414e-05 9.39672968e-05 0.00000000e+00 1.55326483e-05 5.05539803e-05 8.21431636e-05 9.30996137e-05 0.00000000e+00 1.52578472e-05 5.01259956e-05 8.14240106e-05 9.19216800e-05 0.00000000e+00 1.54622711e-05 4.83312156e-05 7.91575453e-05 9.18963300e-05 
        </DataArray>
        <DataArray type="Float64" Name="p">
          6.38124485e-03 5.66919480e-03 5.84400292e-03 6.03735705e-03 5.35003499e-03 6.45325422e-03 5.51653956e-03 5.73945350e-03 5.97998447e-03 5.06675917e-03 6.39825022e-03 5.26071983e-03 5.52739560e-03 5.81155901e-03 4.69734550e-03 6.34553830e-03 4.97570449e-03 5.29257594e-03 5.62599725e-03 4.27822992e-03 6.42060379e-03 4.78412176e-03 5.15767752e-03 5.54577627e-03 3.92868489e-03 
        </DataArray>
      </PointData>
    </Piece>
    <Piece NumberOfPoints="25" NumberOfCells="16">
      <Points>
        <DataArray type="Float64" NumberOfComponents="3" format="ascii">
          -1.56666670e+01 4.50000000e+01 0.00000000e+00 
-1.56666670e+01 4.39146271e+01 0.00000000e+00 
-1.56666670e+01 4.18571434e+01 0.00000000e+00 
-1.56666670e+01 3.97996597e+01 0.00000000e+00 
-1.56666670e+01 3.87142868e+01 0.00000000e+00 
-1.44003963e+01 4.50000000e+01 0.00000000e+00 
-1.44003963e+01 4.39146271e+01 0.00000000e+00 
-1.44003963e+01 4.18571434e+01 0.00000000e+00 
-1.44003963e+01 3.97996597e+01 0.00000000e+00 
-1.44003963e+01 3.87142868e+01 0.00000000e+00 
-1.20000000e+01 4.50000000e+01 0.00000000e+00 
-1.20000000e+01 4.39146271e+01 0.00000000e+00 
-1.20000000e+01 4.18571434e+01 0.00000000e+00 
-1.20000000e+01 3.97996597e+01 0.00000000e+00 
-1.20000000e+01 3.87142868e+01 0.00000000e+00 
-9.59960365e+00 4.50000000e+01 0.00000000e+00 
-9.59960365e+00 4.39146271e+01 0.00000000e+00 
-9.59960365e+00 4.18571434e+01 0.00000000e+00 
-9.59960365e+00 3.97996597e+01 0.00000000e+00 
-9.59960365e+00 3.87142868e+01 0.00000000e+00 
-8.33333302e+00 4.50000000e+01 0.00000000e+00 
-8.33333302e+00 4.39146271e+01 0.00000000e+00 
-8.33333302e+00 4.18571434e+01 0.00000000e+00 
-8.33333302e+00 3.97996597e+01 0.00000000e+00 
-8.33333302e+00 3.87142868e+01 0.00000000e+00 

        </DataArray>
      </Points>
      <Cells>
        <DataArray type="Int32" Name="connectivity" format="ascii">
0 1 6 5
5 6 11 10
10 11 16 15
15 16 21 20
1 2 7 6
6 7 12 11
11 12 17 16
16 17 22 21
2 3 8 7
7 8 13 12
12 13 18 17
17 18 23 22
3 4 9 8
8 9 14 13
13 14 19 18
18 19 24 23

        </DataArray>
        <DataArray type="Int32" Name="offsets" format="ascii">
4 8 12 16 20 24 28 32 36 40 44 48 52 56 60 64 
        </DataArray>
        <DataArray type="UInt8" Name="types" format="ascii">
9 9 9 9 9 9 9 9 9 9 9 9 9 9 9 9 
        </DataArray>
      </Cells>
      <PointData>
        <DataArray type="Float64" Name="u">
          1.00027790e+00 1.00041165e+00 1.00038436e+00 1.00035508e+00 1.00048618e+00 1.00027769e+00 1.00043425e+00 1.00040121e+00 1.00037088e+00 1.00053106e+00 1.00027885e+00 1.00047682e+00 1.00043630e+00 1.00039772e+00 1.00059826e+00 1.00027526e+00 1.00051617e+00 1.00046746e+00 1.00042156e+00 1.00066621e+00 1.00026871e+00 1.00053448e+00 1.00047905e+00 1.00043336e+00 1.00071211e+00 
        </DataArray>
        <DataArray type="Float64" Name="v">
          0.00000000e+00 1.54622711e-05 4.83312156e-05 7.91575453e-05 9.18963300e-05 0.00000000e+00 1.36157095e-05 4.86183295e-05 7.79847152e-05 8.40854457e-05 0.00000000e+00 1.27630152e-05 4.45718204e-05 7.18269915e-05 7.85184944e-05 0.00000000e+00 1.05656761e-05 3.89627421e-05 6.24668792e-05 6.65086501e-05 0.00000000e+00 6.92625473e-06 3.71664302e-05 5.70241976e-05 5.01072416e-05 
        </DataArray>
        <DataArray type="Float64" Name="p">
          6.42060379e-03 4.78412176e-03 5.15767752e-03 5.54577627e-03 3.92868489e-03 6.29823840e-03 4.64382032e-03 5.02123081e-03 5.41383042e-03 3.77966449e-03 6.26777434e-03 4.29959619e-03 4.74336167e-03 5.19913267e-03 3.24696190e-03 6.21061223e-03 3.94285113e-03 4.44875745e-03 4.96364454e-03 2.70785779e-03 6.05264945e-03 3.78585510e-03 4.28999732e-03 4.80397818e-03 2.55030202e-03 
        </DataArray>
      </PointData>
    </Piece>
    <Piece NumberOfPoints="25" NumberOfCells="16">
      <Points>
        <DataArray type="Float64" NumberOfComponents="3" format="ascii">
          -8.33333302e+00 4.50000000e+01 0.00000000e+00 
-8.33333302e+00 4.39146271e+01 0.00000000e+00 
-8.33333302e+00 4.18571434e+01 0.00000000e+00 
-8.33333302e+00 3.97996597e+01 0.00000000e+00 
-8.33333302e+00 3.87142868e+01 0.00000000e+00 
-7.06706333e+00 4.50000000e+01 0.00000000e+00 
-7.06706333e+00 4.39146271e+01 0.00000000e+00 
-7.06706333e+00 4.18571434e+01 0.00000000e+00 
-7.06706333e+00 3.97996597e+01 0.00000000e+00 
-7.06706333e+00 3.87142868e+01 0.00000000e+00 
-4.66666651e+00 4.50000000e+01 0.00000000e+00 
-4.66666651e+00 4.39146271e+01 0.00000000e+00 
-4.66666651e+00 4.18571434e+01 0.00000000e+00 
-4.66666651e+00 3.97996597e+01 0.00000000e+00 
-4.66666651e+00 3.87142868e+01 0.00000000e+00 
-2.26626992e+00 4.50000000e+01 0.00000000e+00 
-2.26626992e+00 4.39146271e+01 0.00000000e+00 
-2.26626992e+00 4.18571434e+01 0.00000000e+00 
-2.26626992e+00 3.97996597e+01 0.00000000e+00 
-2.26626992e+00 3.87142868e+01 0.00000000e+00 
-1.00000000e+00 4.50000000e+01 0.00000000e+00 
-1.00000000e+00 4.39146271e+01 0.00000000e+00 
-1.00000000e+00 4.18571434e+01 0.00000000e+00 
-1.00000000e+00 3.97996597e+01 0.00000000e+00 
-1.00000000e+00 3.87142868e+01 0.00000000e+00 

        </DataArray>
      </Points>
      <Cells>
        <DataArray type="Int32" Name="connectivity" format="ascii">
0 1 6 5
5 6 11 10
10 11 16 15
15 16 21 20
1 2 7 6
6 7 12 11
11 12 17 16
16 17 22 21
2 3 8 7
7 8 13 12
12 13 18 17
17 18 23 22
3 4 9 8
8 9 14 13
13 14 19 18
18 19 24 23

        </DataArray>
        <DataArray type="Int32" Name="offsets" format="ascii">
4 8 12 16 20 24 28 32 36 40 44 48 52 56 60 64 
        </DataArray>
        <DataArray type="UInt8" Name="types" format="ascii">
9 9 9 9 9 9 9 9 9 9 9 9 9 9 9 9 
        </DataArray>
      </Cells>
      <PointData>
        <DataArray type="Float64" Name="u">
          1.00026871e+00 1.00053448e+00 1.00047905e+00 1.00043336e+00 1.00071211e+00 1.00025225e+00 1.00055497e+00 1.00049513e+00 1.00043766e+00 1.00074354e+00 1.00024282e+00 1.00057998e+00 1.00051034e+00 1.00045801e+00 1.00081824e+00 1.00049317e+00 1.00052904e+00 1.00051916e+00 1.00054151e+00 1.00062036e+00 1.00082309e+00 1.00044825e+00 1.00052670e+00 1.00063003e+00 1.00028834e+00 
        </DataArray>
        <DataArray type="Float64" Name="v">
          0.00000000e+00 6.92625473e-06 3.71664302e-05 5.70241976e-05 5.01072416e-05 0.00000000e+00 6.75714254e-06 3.14767959e-05 4.96222900e-05 4.76138869e-05 0.00000000e+00 1.17927747e-05 1.30483586e-05 3.09741000e-05 6.49937515e-05 0.00000000e+00 4.63614616e-05 -2.68662720e-05 1.25846375e-05 2.09184290e-04 0.00000000e+00 8.55697556e-05 -6.12041641e-05 5.52769989e-06 3.75771834e-04 
        </DataArray>
        <DataArray type="Float64" Name="p">
          6.05264945e-03 3.78585510e-03 4.28999732e-03 4.80397818e-03 2.55030202e-03 6.10397400e-03 3.56312910e-03 4.12429717e-03 4.69020822e-03 2.15568731e-03 5.95206125e-03 3.20964094e-03 3.81180922e-03 4.40408022e-03 1.64846355e-03 5.46355987e-03 2.94062251e-03 3.49826223e-03 4.01843054e-03 1.44553129e-03 5.06609957e-03 2.83052282e-03 3.33115003e-03 3.77196500e-03 1.45663860e-03 
        </DataArray>
      </PointData>
    </Piece>
    <Piece NumberOfPoints="25" NumberOfCells="16">
      <Points>
        <DataArray type="Float64" NumberOfComponents="3" format="ascii">
          -4.50000000e+01 3.87142868e+01 0.00000000e+00 
-4.50000000e+01 3.76289101e+01 0.00000000e+00 
-4.50000000e+01 3.55714302e+01 0.00000000e+00 
-4.50000000e+01 3.35139465e+01 0.00000000e+00 
-4.50000000e+01 3.24285698e+01 0.00000000e+00 
-4.37337303e+01 3.87142868e+01 0.00000000e+00 
-4.37337303e+01 3.76289101e+01 0.00000000e+00 
-4.37337303e+01 3.55714302e+01 0.00000000e+00 
-4.37337303e+01 3.35139465e+01 0.00000000e+00 
-4.37337303e+01 3.24285698e+01 0.00000000e+00 
-4.13333321e+01 3.87142868e+01 0.00000000e+00 
-4.13333321e+01 3.76289101e+01 0.00000000e+00 
-4.13333321e+01 3.55714302e+01 0.00000000e+00 
-4.13333321e+01 3.35139465e+01 0.00000000e+00 
-4.13333321e+01 3.24285698e+01 0.00000000e+00 
-3.89329376e+01 3.87142868e+01 0.00000000e+00 
-3.89329376e+01 3.76289101e+01 0.00000000e+00 
-3.89329376e+01 3.55714302e+01 0.00000000e+00 
-3.89329376e+01 3.35139465e+01 0.00000000e+00 
-3.89329376e+01 3.24285698e+01 0.00000000e+00 
-3.76666679e+01 3.87142868e+01 0.00000000e+00 
-3.76666679e+01 3.76289101e+01 0.00000000e+00 
-3.76666679e+01 3.55714302e+01 0.00000000e+00 
-3.76666679e+01 3.35139465e+01 0.00000000e+00 
-3.76666679e+01 3.24285698e+01 0.00000000e+00 

        </DataArray>
      </Points>
      <Cells>
        <DataArray type="Int32" Name="connectivity" format="ascii">
0 1 6 5
5 6 11 10
10 11 16 15
15 16 21 20
1 2 7 6
6 7 12 11
11 12 17 16
16 17 22 21
2 3 8 7
7 8 13 12
12 13 18 17
17 18 23 22
3 4 9 8
8 9 14 13
13 14 19 18
18 19 24 23

        </DataArray>
        <DataArray type="Int32" Name="offsets" format="ascii">
4 8 12 16 20 24 28 32 36 40 44 48 52 56 60 64 
        </DataArray>
        <DataArray type="UInt8" Name="types" format="ascii">
9 9 9 9 9 9 9 9 9 9 9 9 9 9 9 9 
        </DataArray>
      </Cells>
      <PointData>
        <DataArray type="Float64" Name="u">
          1.00000000e+00 1.00000000e+00 1.00000000e+00 1.00000000e+00 1.00000000e+00 1.00000498e+00 1.00000360e+00 1.00000373e+00 1.00000393e+00 1.00000264e+00 1.00002846e+00 1.00002373e+00 1.00002362e+00 1.00002335e+00 1.00001840e+00 1.00005754e+00 1.00005120e+00 1.00005008e+00 1.00004835e+00 1.00004120e+00 1.00006999e+00 1.00006458e+00 1.00006254e+00 1.00005971e+00 1.00005324e+00 
        </DataArray>
        <DataArray type="Float64" Name="v">
          0.00000000e+00 0.00000000e+00 0.00000000e+00 0.00000000e+00 0.00000000e+00 3.61723539e-05 4.37475557e-05 5.44425721e-05 6.52787282e-05 7.30421161e-05 7.10854548e-05 8.36313911e-05 1.05061097e-04 1.25648109e-04 1.37070454e-04 7.54846175e-05 8.74125376e-05 1.10630996e-04 1.32378552e-04 1.42345270e-04 7.09717206e-05 8.30231748e-05 1.05008734e-04 1.26138697e-04 1.37049357e-04 
        </DataArray>
        <DataArray type="Float64" Name="p">
          6.60356908e-03 6.78451646e-03 6.79947133e-03 6.82427218e-03 7.01834754e-03 6.68269045e-03 6.76181291e-03 6.80514353e-03 6.86060441e-03 6.95590054e-03 6.63272341e-03 6.74724167e-03 6.78209205e-03 6.82833660e-03 6.95804709e-03 6.55561883e-03 6.71855061e-03 6.74261214e-03 6.77781978e-03 6.95561303e-03 6.59855682e-03 6.67702065e-03 6.72637978e-03 6.78981998e-03 6.88705856e-03 
        </DataArray>
      </PointData>
    </Piece>
    <Piece NumberOfPoints="25" NumberOfCells="16">
      <Points>
        <DataArray type="Float64" NumberOfComponents="3" format="ascii">
          -3.76666679e+01 3.87142868e+01 0.00000000e+00 
-3.76666679e+01 3.76289101e+01 0.00000000e+00 
-3.76666679e+01 3.55714302e+01 0.00000000e+00 
-3.76666679e+01 3.35139465e+01 0.00000000e+00 
-3.76666679e+01 3.24285698e+01 0.00000000e+00 
-3.64003983e+01 3.87142868e+01 0.00000000e+00 
-3.64003983e+01 3.76289101e+01 0.00000000e+00 
-3.64003983e+01 3.55714302e+01 0.00000000e+00 
-3.64003983e+01 3.35139465e+01 0.00000000e+00 
-3.64003983e+01 3.24285698e+01 0.00000000e+00 
-3.40000000e+01 3.87142868e+01 0.00000000e+00 
-3.40000000e+01 3.76289101e+01 0.00000000e+00 
-3.40000000e+01 3.55714302e+01 0.00000000e+00 
-3.40000000e+01 3.35139465e+01 0.00000000e+00 
-3.40000000e+01 3.24285698e+01 0.00000000e+00 
-3.15996037e+01 3.87142868e+01 0.00000000e+00 
-3.15996037e+01 3.76289101e+01 0.00000000e+00 
-3.15996037e+01 3.55714302e+01 0.00000000e+00 
-3.15996037e+01 3.35139465e+01 0.00000000e+00 
-3.15996037e+01 3.24285698e+01 0.00000000e+00 
-3.03333340e+01 3.87142868e+01 0.00000000e+00 
-3.03333340e+01 3.76289101e+01 0.00000000e+00 
-3.03333340e+01 3.55714302e+01 0.00000000e+00 
-3.03333340e+01 3.35139465e+01 0.00000000e+00 
-3.03333340e+01 3.24285698e+01 0.00000000e+00 

        </DataArray>
      </Points>
      <Cells>
        <DataArray type="Int32" Name="connectivity" format="ascii">
0 1 6 5
5 6 11 10
10 11 16 15
15 16 21 20
1 2 7 6
6 7 12 11
11 12 17 16
16 17 22 21
2 3 8 7
7 8 13 12
12 13 18 17
17 18 23 22
3 4 9 8
8 9 14 13
13 14 19 18
18 19 24 23

        </DataArray>
        <DataArray type="Int32" Name="offsets" format="ascii">
4 8 12 16 20 24 28 32 36 40 44 48 52 56 60 64 
        </DataArray>
        <DataArray type="UInt8" Name="types" format="ascii">
9 9 9 9 9 9 9 9 9 9 9 9 9 9 9 9 
        </DataArray>
      </Cells>
      <PointData>
        <DataArray type="Float64" Name="u">
          1.00006999e+00 1.00006458e+00 1.00006254e+00 1.00005971e+00 1.00005324e+00 1.00008714e+00 1.00007919e+00 1.00007717e+00 1.00007438e+00 1.00006539e+00 1.00011914e+00 1.00010658e+00 1.00010459e+00 1.00010123e+00 1.00008683e+00 1.00015300e+00 1.00013575e+00 1.00013394e+00 1.00013069e+00 1.00011151e+00 1.00017263e+00 1.00015274e+00 1.00015114e+00 1.00014883e+00 1.00012799e+00 
        </DataArray>
        <DataArray type="Float64" Name="v">
          7.09717206e-05 8.30231748e-05 1.05008734e-04 1.26138697e-04 1.37049357e-04 7.41117351e-05 8.80501281e-05 1.10467162e-04 1.32570033e-04 1.46089542e-04 7.86242761e-05 9.32343572e-05 1.17559957e-04 1.41526015e-04 1.55656708e-04 8.13137937e-05 9.72039507e-05 1.22698068e-04 1.48549335e-04 1.64915692e-04 8.20231103e-05 1.00611390e-04 1.25550252e-04 1.52403787e-04 1.73544966e-04 
        </DataArray>
        <DataArray type="Float64" Name="p">
          6.59855682e-03 6.67702065e-03 6.72637978e-03 6.78981998e-03 6.88705856e-03 6.46147230e-03 6.66695335e-03 6.68403100e-03 6.71227999e-03 6.93265616e-03 6.35887767e-03 6.59961512e-03 6.61276409e-03 6.63835406e-03 6.89567949e-03 6.21823294e-03 6.51699086e-03 6.52184163e-03 6.54048439e-03 6.85763164e-03 6.03041496e-03 6.48654218e-03 6.45328542e-03 6.43101942e-03 6.90180100e-03 
        </DataArray>
      </PointData>
    </Piece>
    <Piece NumberOfPoints="25" NumberOfCells="16">
      <Points>
        <DataArray type="Float64" NumberOfComponents="3" format="ascii">
          -3.03333340e+01 3.87142868e+01 0.00000000e+00 
-3.03333340e+01 3.76289101e+01 0.00000000e+00 
-3.03333340e+01 3.55714302e+01 0.00000000e+00 
-3.03333340e+01 3.35139465e+01 0.00000000e+00 
-3.03333340e+01 3.24285698e+01 0.00000000e+00 
-2.90670643e+01 3.87142868e+01 0.00000000e+00 
-2.90670643e+01 3.76289101e+01 0.00000000e+00 
-2.90670643e+01 3.55714302e+01 0.00000000e+00 
-2.90670643e+01 3.35139465e+01 0.00000000e+00 
-2.90670643e+01 3.24285698e+01 0.00000000e+00 
-2.66666660e+01 3.87142868e+01 0.00000000e+00 
-2.66666660e+01 3.76289101e+01 0.00000000e+00 
-2.66666660e+01 3.55714302e+01 0.00000000e+00 
-2.66666660e+01 3.35139465e+01 0.00000000e+00 
-2.66666660e+01 3.24285698e+01 0.00000000e+00 
-2.42662697e+01 3.87142868e+01 0.00000000e+00 
-2.42662697e+01 3.76289101e+01 0.00000000e+00 
-2.42662697e+01 3.55714302e+01 0.00000000e+00 
-2.42662697e+01 3.35139465e+01 0.00000000e+00 
-2.42662697e+01 3.24285698e+01 0.00000000e+00 
-2.30000000e+01 3.87142868e+01 0.00000000e+00 
-2.30000000e+01 3.76289101e+01 0.00000000e+00 
-2.30000000e+01 3.55714302e+01 0.00000000e+00 
-2.30000000e+01 3.35139465e+01 0.00000000e+00 
-2.30000000e+01 3.24285698e+01 0.00000000e+00 

        </DataArray>
      </Points>
      <Cells>
        <DataArray type="Int32" Name="connectivity" format="ascii">
0 1 6 5
5 6 11 10
10 11 16 15
15 16 21 20
1 2 7 6
6 7 12 11
11 12 17 16
16 17 22 21
2 3 8 7
7 8 13 12
12 13 18 17
17 18 23 22
3 4 9 8
8 9 14 13
13 14 19 18
18 19 24 23

        </DataArray>
        <DataArray type="Int32" Name="offsets" format="ascii">
4 8 12 16 20 24 28 32 36 40 44 48 52 56 60 64 
        </DataArray>
        <DataArray type="UInt8" Name="types" format="ascii">
9 9 9 9 9 9 9 9 9 9 9 9 9 9 9 9 
        </DataArray>
      </Cells>
      <PointData>
        <DataArray type="Float64" Name="u">
          1.00017263e+00 1.00015274e+00 1.00015114e+00 1.00014883e+00 1.00012799e+00 1.00019462e+00 1.00016734e+00 1.00016768e+00 1.00016560e+00 1.00013509e+00 1.00023587e+00 1.00020038e+00 1.00020224e+00 1.00020276e+00 1.00016547e+00 1.00028366e+00 1.00023385e+00 1.00023989e+00 1.00024422e+00 1.00019214e+00 1.00031437e+00 1.00024903e+00 1.00026052e+00 1.00026672e+00 1.00019430e+00 
        </DataArray>
        <DataArray type="Float64" Name="v">
          8.20231103e-05 1.00611390e-04 1.25550252e-04 1.52403787e-04 1.73544966e-04 8.56350169e-05 1.03271446e-04 1.30691831e-04 1.58821833e-04 1.77404418e-04 8.88549726e-05 1.08793097e-04 1.37354531e-04 1.68229132e-04 1.91251478e-04 9.11715616e-05 1.13940659e-04 1.43539543e-04 1.76833539e-04 2.04529451e-04 9.35789792e-05 1.16101929e-04 1.48044206e-04 1.82181063e-04 2.07630120e-04 
        </DataArray>
        <DataArray type="Float64" Name="p">
          6.03041496e-03 6.48654218e-03 6.45328542e-03 6.43101942e-03 6.90180100e-03 6.00845679e-03 6.41713343e-03 6.40106194e-03 6.39978219e-03 6.82818112e-03 5.74192704e-03 6.30997128e-03 6.26094850e-03 6.22693446e-03 6.81499035e-03 5.43108124e-03 6.18592056e-03 6.09691972e-03 6.02317736e-03 6.79836130e-03 5.35003499e-03 6.09399369e-03 6.01280914e-03 5.95072763e-03 6.72015706e-03 
        </DataArray>
      </PointData>
    </Piece>
    <Piece NumberOfPoints="25" NumberOfCells="16">
      <Points>
        <DataArray type="Float64" NumberOfComponents="3" format="ascii">
          -2.30000000e+01 3.87142868e+01 0.00000000e+00 